<?xml version="1.0" encoding="UTF-8"?>
<Database>
  <DatabaseInfo>
    <DatabaseID>ads</DatabaseID>
  </DatabaseInfo>
  <DatasetInfo TocLevels="0" NumberingStyle="Unnumbered" ContainsESM="No" DatasetType="Datasheet">
    <DatasetTitle Language="En">Adsorption isotherm for iso-butane on F30/470 (activated carbon)
    </DatasetTitle>
    <DatasetCopyright>
      <CopyrightHolderName>Springer-Verlag Berlin Heidelberg</CopyrightHolderName>
      <CopyrightYear>2013</CopyrightYear>
    </DatasetCopyright>
    <Editor>
      <Name DisplayOrder="Western">Orhan Talu</Name>
      <Email>o.talu@csuohio.edu</Email>
    </Editor>
    <adsorbate>
      <name>iso-butane</name>
      <cas-number>75-28-5</cas-number>
      <molecular-formula>C<sub>4</sub>H<sub>10</sub></molecular-formula>
      <molecular-weight>58.12</molecular-weight>
      <normal-boiling-point>262 K</normal-boiling-point>
      <critical-temperature>407.7 K</critical-temperature>
      <critical-pressure>3650 kPa</critical-pressure>
      <critical-volume>259 cm<sup>3</sup>/mol</critical-volume>
    </adsorbate>
    <adsorbent>
      <name>F30/470</name>
      <solid-class>activated carbon</solid-class>
      <solid-sub-class/>
      <descriptions>
        <description>
          <title> Regeneration</title>
          <value> ex-situ, 24 hr, ambient pressure, 423 K</value>
        </description>
        <description>
          <title>Area</title>
          <value> 1100 m<sup>2</sup>/g</value>
        </description>
      </descriptions>
      <supplier>Chemviron Carbon Belgium</supplier>
      <form/>
    </adsorbent>
  </DatasetInfo>
  <Datasets>
    <Dataset>
        <bucket-details>
            <bucket-name>ads000848</bucket-name>
            <bucket-number>900</bucket-number>
        </bucket-details>
        <temperature>
        <value>278</value>
        <unit>K</unit>
      </temperature>
      <DatasetID>ads000848</DatasetID>
      <subtitle><Emphasis Type="Italic">T</Emphasis> = 278 K</subtitle>
      <experimental-setup>
        <data-type>table</data-type>
        <lab/>
        <method>volumetric</method>
        <apparatus/>
        <quality/>
        <remark/>
      </experimental-setup>
      <experiment-data>
        <data>
          <pressure>
            <value>2.7</value>
            <unit>kPa</unit>
          </pressure>
          <sorption type="Adsorption">
            <value>1.25</value>
            <unit>mol/kg</unit>
          </sorption>
        </data>
        <data>
          <pressure>
            <value>2.82</value>
            <unit>kPa</unit>
          </pressure>
          <sorption type="Adsorption">
            <value>1.45</value>
            <unit>mol/kg</unit>
          </sorption>
        </data>
        <data>
          <pressure>
            <value>3.19</value>
            <unit>kPa</unit>
          </pressure>
          <sorption type="Adsorption">
            <value>1.65</value>
            <unit>mol/kg</unit>
          </sorption>
        </data>
        <data>
          <pressure>
            <value>3.93</value>
            <unit>kPa</unit>
          </pressure>
          <sorption type="Adsorption">
            <value>1.83</value>
            <unit>mol/kg</unit>
          </sorption>
        </data>
        <data>
          <pressure>
            <value>3.95</value>
            <unit>kPa</unit>
          </pressure>
          <sorption type="Adsorption">
            <value>2.05</value>
            <unit>mol/kg</unit>
          </sorption>
        </data>
        <data>
          <pressure>
            <value>4.3</value>
            <unit>kPa</unit>
          </pressure>
          <sorption type="Adsorption">
            <value>2.24</value>
            <unit>mol/kg</unit>
          </sorption>
        </data>
        <data>
          <pressure>
            <value>4.79</value>
            <unit>kPa</unit>
          </pressure>
          <sorption type="Adsorption">
            <value>2.4</value>
            <unit>mol/kg</unit>
          </sorption>
        </data>
        <data>
          <pressure>
            <value>6.03</value>
            <unit>kPa</unit>
          </pressure>
          <sorption type="Adsorption">
            <value>2.56</value>
            <unit>mol/kg</unit>
          </sorption>
        </data>
        <data>
          <pressure>
            <value>7.27</value>
            <unit>kPa</unit>
          </pressure>
          <sorption type="Adsorption">
            <value>2.73</value>
            <unit>mol/kg</unit>
          </sorption>
        </data>
        <data>
          <pressure>
            <value>8.75</value>
            <unit>kPa</unit>
          </pressure>
          <sorption type="Adsorption">
            <value>2.87</value>
            <unit>mol/kg</unit>
          </sorption>
        </data>
        <data>
          <pressure>
            <value>11.59</value>
            <unit>kPa</unit>
          </pressure>
          <sorption type="Adsorption">
            <value>3.01</value>
            <unit>mol/kg</unit>
          </sorption>
        </data>
        <data>
          <pressure>
            <value>18.76</value>
            <unit>kPa</unit>
          </pressure>
          <sorption type="Adsorption">
            <value>3.22</value>
            <unit>mol/kg</unit>
          </sorption>
        </data>
        <data>
          <pressure>
            <value>28.77</value>
            <unit>kPa</unit>
          </pressure>
          <sorption type="Adsorption">
            <value>3.36</value>
            <unit>mol/kg</unit>
          </sorption>
        </data>
        <data>
          <pressure>
            <value>39.03</value>
            <unit>kPa</unit>
          </pressure>
          <sorption type="Adsorption">
            <value>3.46</value>
            <unit>mol/kg</unit>
          </sorption>
        </data>
        <data>
          <pressure>
            <value>50.4</value>
            <unit>kPa</unit>
          </pressure>
          <sorption type="Adsorption">
            <value>3.54</value>
            <unit>mol/kg</unit>
          </sorption>
        </data>
        <data>
          <pressure>
            <value>61.4</value>
            <unit>kPa</unit>
          </pressure>
          <sorption type="Adsorption">
            <value>3.62</value>
            <unit>mol/kg</unit>
          </sorption>
        </data>
        <data>
          <pressure>
            <value>76.73</value>
            <unit>kPa</unit>
          </pressure>
          <sorption type="Adsorption">
            <value>3.7</value>
            <unit>mol/kg</unit>
          </sorption>
        </data>
        <data>
          <pressure>
            <value>93.66</value>
            <unit>kPa</unit>
          </pressure>
          <sorption type="Adsorption">
            <value>3.78</value>
            <unit>mol/kg</unit>
          </sorption>
        </data>
        <data>
          <pressure>
            <value>113.69</value>
            <unit>kPa</unit>
          </pressure>
          <sorption type="Adsorption">
            <value>3.88</value>
            <unit>mol/kg</unit>
          </sorption>
        </data>
        <data>
          <pressure>
            <value>142.98</value>
            <unit>kPa</unit>
          </pressure>
          <sorption type="Adsorption">
            <value>4.02</value>
            <unit>mol/kg</unit>
          </sorption>
        </data>
      </experiment-data>
    </Dataset>
    <Dataset>
        <bucket-details>
            <bucket-name>ads000849</bucket-name>
            <bucket-number>901</bucket-number>
        </bucket-details>
        <temperature>
        <value>288</value>
        <unit>K</unit>
      </temperature>
      <DatasetID>ads000849</DatasetID>
      <subtitle><Emphasis Type="Italic">T</Emphasis> = 288 K</subtitle>
      <experimental-setup>
        <data-type>table</data-type>
        <lab/>
        <method>volumetric</method>
        <apparatus/>
        <quality/>
        <remark/>
      </experimental-setup>
      <experiment-data>
        <data>
          <pressure>
            <value>0.63</value>
            <unit>kPa</unit>
          </pressure>
          <sorption type="Adsorption">
            <value>1.68</value>
            <unit>mol/kg</unit>
          </sorption>
        </data>
        <data>
          <pressure>
            <value>0.59</value>
            <unit>kPa</unit>
          </pressure>
          <sorption type="Adsorption">
            <value>1.88</value>
            <unit>mol/kg</unit>
          </sorption>
        </data>
        <data>
          <pressure>
            <value>1.21</value>
            <unit>kPa</unit>
          </pressure>
          <sorption type="Adsorption">
            <value>2.08</value>
            <unit>mol/kg</unit>
          </sorption>
        </data>
        <data>
          <pressure>
            <value>2.08</value>
            <unit>kPa</unit>
          </pressure>
          <sorption type="Adsorption">
            <value>2.29</value>
            <unit>mol/kg</unit>
          </sorption>
        </data>
        <data>
          <pressure>
            <value>3.56</value>
            <unit>kPa</unit>
          </pressure>
          <sorption type="Adsorption">
            <value>2.48</value>
            <unit>mol/kg</unit>
          </sorption>
        </data>
        <data>
          <pressure>
            <value>8.01</value>
            <unit>kPa</unit>
          </pressure>
          <sorption type="Adsorption">
            <value>2.73</value>
            <unit>mol/kg</unit>
          </sorption>
        </data>
        <data>
          <pressure>
            <value>15.67</value>
            <unit>kPa</unit>
          </pressure>
          <sorption type="Adsorption">
            <value>2.91</value>
            <unit>mol/kg</unit>
          </sorption>
        </data>
        <data>
          <pressure>
            <value>26.55</value>
            <unit>kPa</unit>
          </pressure>
          <sorption type="Adsorption">
            <value>3.04</value>
            <unit>mol/kg</unit>
          </sorption>
        </data>
        <data>
          <pressure>
            <value>42.74</value>
            <unit>kPa</unit>
          </pressure>
          <sorption type="Adsorption">
            <value>3.16</value>
            <unit>mol/kg</unit>
          </sorption>
        </data>
        <data>
          <pressure>
            <value>59.3</value>
            <unit>kPa</unit>
          </pressure>
          <sorption type="Adsorption">
            <value>3.25</value>
            <unit>mol/kg</unit>
          </sorption>
        </data>
        <data>
          <pressure>
            <value>79.08</value>
            <unit>kPa</unit>
          </pressure>
          <sorption type="Adsorption">
            <value>3.33</value>
            <unit>mol/kg</unit>
          </sorption>
        </data>
        <data>
          <pressure>
            <value>102.69</value>
            <unit>kPa</unit>
          </pressure>
          <sorption type="Adsorption">
            <value>3.42</value>
            <unit>mol/kg</unit>
          </sorption>
        </data>
        <data>
          <pressure>
            <value>129.26</value>
            <unit>kPa</unit>
          </pressure>
          <sorption type="Adsorption">
            <value>3.51</value>
            <unit>mol/kg</unit>
          </sorption>
        </data>
        <data>
          <pressure>
            <value>161.4</value>
            <unit>kPa</unit>
          </pressure>
          <sorption type="Adsorption">
            <value>3.62</value>
            <unit>mol/kg</unit>
          </sorption>
        </data>
        <data>
          <pressure>
            <value>206.26</value>
            <unit>kPa</unit>
          </pressure>
          <sorption type="Adsorption">
            <value>3.82</value>
            <unit>mol/kg</unit>
          </sorption>
        </data>
      </experiment-data>
    </Dataset>
    <Dataset>
        <bucket-details>
            <bucket-name>ads000850</bucket-name>
            <bucket-number>923</bucket-number>
        </bucket-details>
        <temperature>
        <value>293</value>
        <unit>K</unit>
      </temperature>
      <DatasetID>ads000850</DatasetID>
      <subtitle><Emphasis Type="Italic">T</Emphasis> = 293 K</subtitle>
      <experimental-setup>
        <data-type>table</data-type>
        <lab/>
        <method>volumetric</method>
        <apparatus/>
        <quality/>
        <remark/>
      </experimental-setup>
      <experiment-data>
        <data>
          <pressure>
            <value>0.25</value>
            <unit>kPa</unit>
          </pressure>
          <sorption type="Adsorption">
            <value>1.57</value>
            <unit>mol/kg</unit>
          </sorption>
        </data>
        <data>
          <pressure>
            <value>0.74</value>
            <unit>kPa</unit>
          </pressure>
          <sorption type="Adsorption">
            <value>1.79</value>
            <unit>mol/kg</unit>
          </sorption>
        </data>
        <data>
          <pressure>
            <value>0.87</value>
            <unit>kPa</unit>
          </pressure>
          <sorption type="Adsorption">
            <value>2.01</value>
            <unit>mol/kg</unit>
          </sorption>
        </data>
        <data>
          <pressure>
            <value>2.1</value>
            <unit>kPa</unit>
          </pressure>
          <sorption type="Adsorption">
            <value>2.22</value>
            <unit>mol/kg</unit>
          </sorption>
        </data>
        <data>
          <pressure>
            <value>3.21</value>
            <unit>kPa</unit>
          </pressure>
          <sorption type="Adsorption">
            <value>2.42</value>
            <unit>mol/kg</unit>
          </sorption>
        </data>
        <data>
          <pressure>
            <value>5.56</value>
            <unit>kPa</unit>
          </pressure>
          <sorption type="Adsorption">
            <value>2.59</value>
            <unit>mol/kg</unit>
          </sorption>
        </data>
        <data>
          <pressure>
            <value>13.84</value>
            <unit>kPa</unit>
          </pressure>
          <sorption type="Adsorption">
            <value>2.84</value>
            <unit>mol/kg</unit>
          </sorption>
        </data>
        <data>
          <pressure>
            <value>25.34</value>
            <unit>kPa</unit>
          </pressure>
          <sorption type="Adsorption">
            <value>3</value>
            <unit>mol/kg</unit>
          </sorption>
        </data>
        <data>
          <pressure>
            <value>38.93</value>
            <unit>kPa</unit>
          </pressure>
          <sorption type="Adsorption">
            <value>3.11</value>
            <unit>mol/kg</unit>
          </sorption>
        </data>
        <data>
          <pressure>
            <value>54.26</value>
            <unit>kPa</unit>
          </pressure>
          <sorption type="Adsorption">
            <value>3.19</value>
            <unit>mol/kg</unit>
          </sorption>
        </data>
        <data>
          <pressure>
            <value>69.34</value>
            <unit>kPa</unit>
          </pressure>
          <sorption type="Adsorption">
            <value>3.25</value>
            <unit>mol/kg</unit>
          </sorption>
        </data>
        <data>
          <pressure>
            <value>84.42</value>
            <unit>kPa</unit>
          </pressure>
          <sorption type="Adsorption">
            <value>3.32</value>
            <unit>mol/kg</unit>
          </sorption>
        </data>
        <data>
          <pressure>
            <value>105.93</value>
            <unit>kPa</unit>
          </pressure>
          <sorption type="Adsorption">
            <value>3.39</value>
            <unit>mol/kg</unit>
          </sorption>
        </data>
        <data>
          <pressure>
            <value>125.7</value>
            <unit>kPa</unit>
          </pressure>
          <sorption type="Adsorption">
            <value>3.45</value>
            <unit>mol/kg</unit>
          </sorption>
        </data>
        <data>
          <pressure>
            <value>149.31</value>
            <unit>kPa</unit>
          </pressure>
          <sorption type="Adsorption">
            <value>3.52</value>
            <unit>mol/kg</unit>
          </sorption>
        </data>
        <data>
          <pressure>
            <value>180.65</value>
            <unit>kPa</unit>
          </pressure>
          <sorption type="Adsorption">
            <value>3.6</value>
            <unit>mol/kg</unit>
          </sorption>
        </data>
        <data>
          <pressure>
            <value>206.04</value>
            <unit>kPa</unit>
          </pressure>
          <sorption type="Adsorption">
            <value>3.7</value>
            <unit>mol/kg</unit>
          </sorption>
        </data>
        <data>
          <pressure>
            <value>246.46</value>
            <unit>kPa</unit>
          </pressure>
          <sorption type="Adsorption">
            <value>3.9</value>
            <unit>mol/kg</unit>
          </sorption>
        </data>
      </experiment-data>
    </Dataset>
    <Dataset>
        <bucket-details>
            <bucket-name>ads000851</bucket-name>
            <bucket-number>924</bucket-number>
        </bucket-details>
        <temperature>
        <value>303</value>
        <unit>K</unit>
      </temperature>
      <DatasetID>ads000851</DatasetID>
      <subtitle><Emphasis Type="Italic">T</Emphasis> = 303 K</subtitle>
      <experimental-setup>
        <data-type>table</data-type>
        <lab/>
        <method>volumetric</method>
        <apparatus/>
        <quality/>
        <remark/>
      </experimental-setup>
      <experiment-data>
        <data>
          <pressure>
            <value>3.63</value>
            <unit>kPa</unit>
          </pressure>
          <sorption type="Adsorption">
            <value>0.68</value>
            <unit>mol/kg</unit>
          </sorption>
        </data>
        <data>
          <pressure>
            <value>4.77</value>
            <unit>kPa</unit>
          </pressure>
          <sorption type="Adsorption">
            <value>1</value>
            <unit>mol/kg</unit>
          </sorption>
        </data>
        <data>
          <pressure>
            <value>5.98</value>
            <unit>kPa</unit>
          </pressure>
          <sorption type="Adsorption">
            <value>1.33</value>
            <unit>mol/kg</unit>
          </sorption>
        </data>
        <data>
          <pressure>
            <value>6.84</value>
            <unit>kPa</unit>
          </pressure>
          <sorption type="Adsorption">
            <value>1.62</value>
            <unit>mol/kg</unit>
          </sorption>
        </data>
        <data>
          <pressure>
            <value>11.17</value>
            <unit>kPa</unit>
          </pressure>
          <sorption type="Adsorption">
            <value>2.4</value>
            <unit>mol/kg</unit>
          </sorption>
        </data>
        <data>
          <pressure>
            <value>28.35</value>
            <unit>kPa</unit>
          </pressure>
          <sorption type="Adsorption">
            <value>2.86</value>
            <unit>mol/kg</unit>
          </sorption>
        </data>
        <data>
          <pressure>
            <value>57.27</value>
            <unit>kPa</unit>
          </pressure>
          <sorption type="Adsorption">
            <value>3.08</value>
            <unit>mol/kg</unit>
          </sorption>
        </data>
        <data>
          <pressure>
            <value>71.12</value>
            <unit>kPa</unit>
          </pressure>
          <sorption type="Adsorption">
            <value>3.14</value>
            <unit>mol/kg</unit>
          </sorption>
        </data>
        <data>
          <pressure>
            <value>113.02</value>
            <unit>kPa</unit>
          </pressure>
          <sorption type="Adsorption">
            <value>3.27</value>
            <unit>mol/kg</unit>
          </sorption>
        </data>
        <data>
          <pressure>
            <value>142.56</value>
            <unit>kPa</unit>
          </pressure>
          <sorption type="Adsorption">
            <value>3.34</value>
            <unit>mol/kg</unit>
          </sorption>
        </data>
        <data>
          <pressure>
            <value>159.37</value>
            <unit>kPa</unit>
          </pressure>
          <sorption type="Adsorption">
            <value>3.38</value>
            <unit>mol/kg</unit>
          </sorption>
        </data>
        <data>
          <pressure>
            <value>186.56</value>
            <unit>kPa</unit>
          </pressure>
          <sorption type="Adsorption">
            <value>3.44</value>
            <unit>mol/kg</unit>
          </sorption>
        </data>
        <data>
          <pressure>
            <value>210.41</value>
            <unit>kPa</unit>
          </pressure>
          <sorption type="Adsorption">
            <value>3.5</value>
            <unit>mol/kg</unit>
          </sorption>
        </data>
        <data>
          <pressure>
            <value>223.14</value>
            <unit>kPa</unit>
          </pressure>
          <sorption type="Adsorption">
            <value>3.55</value>
            <unit>mol/kg</unit>
          </sorption>
        </data>
        <data>
          <pressure>
            <value>250.34</value>
            <unit>kPa</unit>
          </pressure>
          <sorption type="Adsorption">
            <value>3.64</value>
            <unit>mol/kg</unit>
          </sorption>
        </data>
        <data>
          <pressure>
            <value>258.87</value>
            <unit>kPa</unit>
          </pressure>
          <sorption type="Adsorption">
            <value>3.72</value>
            <unit>mol/kg</unit>
          </sorption>
        </data>
        <data>
          <pressure>
            <value>283.71</value>
            <unit>kPa</unit>
          </pressure>
          <sorption type="Adsorption">
            <value>3.99</value>
            <unit>mol/kg</unit>
          </sorption>
        </data>
        <data>
          <pressure>
            <value>316.71</value>
            <unit>kPa</unit>
          </pressure>
          <sorption type="Adsorption">
            <value>4.22</value>
            <unit>mol/kg</unit>
          </sorption>
        </data>
      </experiment-data>
    </Dataset>
  </Datasets>
  <search-metadata>
      <substance-property-block>
         <substance ID="LJBORBLTHGEDAMTR">iso-butane</substance>
         <property ID="PhysProp-t6v0pjdnth8djqldj35flka1j91076o6">Adsorption</property>
      </substance-property-block>
      <MolecularFormula Type="Hill">C4H10</MolecularFormula>
  </search-metadata>
</Database>
